{
    "elements": [
      {"name": "Hydrogen", "symbol": "H", "atomic_number": 1, "reactivity": "high", "stability": "low", "mass": 1.008, "volume": 0.08988, "charge": 1, "temperature": 298, "melting_point": 14, "boiling_point": 20, "state": "gas"},
      {"name": "Helium", "symbol": "He", "atomic_number": 2, "reactivity": "low", "stability": "high", "mass": 4.0026, "volume": 0.1786, "charge": 0, "temperature": 298, "melting_point": 0, "boiling_point": 4, "state": "gas"},
      {"name": "Lithium", "symbol": "Li", "atomic_number": 3, "reactivity": "high", "stability": "low", "mass": 6.94, "volume": 0.534, "charge": 1, "temperature": 298, "melting_point": 454, "boiling_point": 1615, "state": "solid"},
      {"name": "Beryllium", "symbol": "Be", "atomic_number": 4, "reactivity": "moderate", "stability": "high", "mass": 9.0122, "volume": 1.85, "charge": 2, "temperature": 298, "melting_point": 1560, "boiling_point": 2742, "state": "solid"},
      {"name": "Boron", "symbol": "B", "atomic_number": 5, "reactivity": "moderate", "stability": "high", "mass": 10.81, "volume": 2.34, "charge": -3, "temperature": 298, "melting_point": 2349, "boiling_point": 4200, "state": "solid"},
      {"name": "Carbon", "symbol": "C", "atomic_number": 6, "reactivity": "high", "stability": "high", "mass": 12.011, "volume": 2.267, "charge": -4, "temperature": 298, "melting_point": 3800, "boiling_point": 4300, "state": "solid"},
      {"name": "Nitrogen", "symbol": "N", "atomic_number": 7, "reactivity": "high", "stability": "high", "mass": 14.007, "volume": 1.251, "charge": -3, "temperature": 298, "melting_point": 63, "boiling_point": 77, "state": "gas"},
      {"name": "Oxygen", "symbol": "O", "atomic_number": 8, "reactivity": "high", "stability": "low", "mass": 15.999, "volume": 1.429, "charge": -2, "temperature": 298, "melting_point": 54, "boiling_point": 90, "state": "gas"},
      {"name": "Fluorine", "symbol": "F", "atomic_number": 9, "reactivity": "very high", "stability": "low", "mass": 18.998, "volume": 1.696, "charge": -1, "temperature": 298, "melting_point": 53, "boiling_point": 85, "state": "gas"},
      {"name": "Neon", "symbol": "Ne", "atomic_number": 10, "reactivity": "low", "stability": "high", "mass": 20.180, "volume": 0.9002, "charge": 0, "temperature": 298, "melting_point": 24, "boiling_point": 27, "state": "gas"},
      {"name": "Sodium", "symbol": "Na", "atomic_number": 11, "reactivity": "high", "stability": "low", "mass": 22.990, "volume": 0.971, "charge": 1, "temperature": 298, "melting_point": 370, "boiling_point": 1156, "state": "solid"},
      {"name": "Magnesium", "symbol": "Mg", "atomic_number": 12, "reactivity": "moderate", "stability": "high", "mass": 24.305, "volume": 1.738, "charge": 2, "temperature": 298, "melting_point": 923, "boiling_point": 1380, "state": "solid"},
      {"name": "Aluminum", "symbol": "Al", "atomic_number": 13, "reactivity": "moderate", "stability": "high", "mass": 26.982, "volume": 2.70, "charge": 3, "temperature": 298, "melting_point": 933, "boiling_point": 2792, "state": "solid"},
      {"name": "Silicon", "symbol": "Si", "atomic_number": 14, "reactivity": "moderate", "stability": "high", "mass": 28.085, "volume": 2.33, "charge": -4, "temperature": 298, "melting_point": 1687, "boiling_point": 3538, "state": "solid"},
      {"name": "Phosphorus", "symbol": "P", "atomic_number": 15, "reactivity": "high", "stability": "moderate", "mass": 30.974, "volume": 1.82, "charge": -3, "temperature": 298, "melting_point": 44, "boiling_point": 280, "state": "solid"},
      {"name": "Sulfur", "symbol": "S", "atomic_number": 16, "reactivity": "high", "stability": "moderate", "mass": 32.06, "volume": 2.07, "charge": -2, "temperature": 298, "melting_point": 388, "boiling_point": 717, "state": "solid"},
      {"name": "Chlorine", "symbol": "Cl", "atomic_number": 17, "reactivity": "high", "stability": "low", "mass": 35.45, "volume": 3.214, "charge": -1, "temperature": 298, "melting_point": 171, "boiling_point": 239, "state": "gas"},
      {"name": "Argon", "symbol": "Ar", "atomic_number": 18, "reactivity": "low", "stability": "high", "mass": 39.948, "volume": 1.784, "charge": 0, "temperature": 298, "melting_point": 84, "boiling_point": 87, "state": "gas"},
      {"name": "Potassium", "symbol": "K", "atomic_number": 19, "reactivity": "high", "stability": "low", "mass": 39.098, "volume": 0.862, "charge": 1, "temperature": 298, "melting_point": 336, "boiling_point": 1032, "state": "solid"},
      {"name": "Calcium", "symbol": "Ca", "atomic_number": 20, "reactivity": "moderate", "stability": "high", "mass": 40.078, "volume": 1.54, "charge": 2, "temperature": 298, "melting_point": 1115, "boiling_point": 1757, "state": "solid"},
      {"name": "Scandium", "symbol": "Sc", "atomic_number": 21, "reactivity": "moderate", "stability": "high", "mass": 44.956, "volume": 2.985, "charge": 3, "temperature": 298, "melting_point": 1814, "boiling_point": 3109, "state": "solid"},
      {"name": "Titanium", "symbol": "Ti", "atomic_number": 22, "reactivity": "moderate", "stability": "high", "mass": 47.867, "volume": 4.507, "charge": 4, "temperature": 298, "melting_point": 1941, "boiling_point": 3560, "state": "solid"},
      {"name": "Vanadium", "symbol": "V", "atomic_number": 23, "reactivity": "moderate", "stability": "high", "mass": 50.942, "volume": 6.11, "charge": 5, "temperature": 298, "melting_point": 2183, "boiling_point": 3680, "state": "solid"},
      {"name": "Chromium", "symbol": "Cr", "atomic_number": 24, "reactivity": "moderate", "stability": "high", "mass": 51.996, "volume": 7.19, "charge": 3, "temperature": 298, "melting_point": 2180, "boiling_point": 2944, "state": "solid"},
      {"name": "Manganese", "symbol": "Mn", "atomic_number": 25, "reactivity": "moderate", "stability": "moderate", "mass": 54.938, "volume": 7.44, "charge": 2, "temperature": 298, "melting_point": 1519, "boiling_point": 2334, "state": "solid"},
      {"name": "Iron", "symbol": "Fe", "atomic_number": 26, "reactivity": "moderate", "stability": "moderate", "mass": 55.845, "volume": 7.874, "charge": 2, "temperature": 298, "melting_point": 1811, "boiling_point": 3134, "state": "solid"},
      {"name": "Cobalt", "symbol": "Co", "atomic_number": 27, "reactivity": "moderate", "stability": "moderate", "mass": 58.933, "volume": 8.9, "charge": 2, "temperature": 298, "melting_point": 1768, "boiling_point": 3200, "state": "solid"},
      {"name": "Nickel", "symbol": "Ni", "atomic_number": 28, "reactivity": "moderate", "stability": "moderate", "mass": 58.693, "volume": 8.9, "charge": 2, "temperature": 298, "melting_point": 1728, "boiling_point": 3186, "state": "solid"},
      {"name": "Copper", "symbol": "Cu", "atomic_number": 29, "reactivity": "moderate", "stability": "moderate", "mass": 63.546, "volume": 8.96, "charge": 2, "temperature": 298, "melting_point": 1357, "boiling_point": 2835, "state": "solid"},
      {"name": "Zinc", "symbol": "Zn", "atomic_number": 30, "reactivity": "moderate", "stability": "moderate", "mass": 65.38, "volume": 7.134, "charge": 2, "temperature": 298, "melting_point": 693, "boiling_point": 1180, "state": "solid"},
      {"name": "Gallium", "symbol": "Ga", "atomic_number": 31, "reactivity": "moderate", "stability": "moderate", "mass": 69.723, "volume": 5.91, "charge": 3, "temperature": 298, "melting_point": 303, "boiling_point": 2477, "state": "solid"},
      {"name": "Germanium", "symbol": "Ge", "atomic_number": 32, "reactivity": "moderate", "stability": "moderate", "mass": 72.630, "volume": 5.323, "charge": 4, "temperature": 298, "melting_point": 1211, "boiling_point": 3106, "state": "solid"},
      {"name": "Arsenic", "symbol": "As", "atomic_number": 33, "reactivity": "moderate", "stability": "moderate", "mass": 74.922, "volume": 5.776, "charge": -3, "temperature": 298, "melting_point": 1090, "boiling_point": 887, "state": "solid"},
      {"name": "Selenium", "symbol": "Se", "atomic_number": 34, "reactivity": "moderate", "stability": "moderate", "mass": 78.971, "volume": 4.809, "charge": -2, "temperature": 298, "melting_point": 494, "boiling_point": 958, "state": "solid"},
      {"name": "Bromine", "symbol": "Br", "atomic_number": 35, "reactivity": "high", "stability": "low", "mass": 79.904, "volume": 3.119, "charge": -1, "temperature": 298, "melting_point": 266, "boiling_point": 332, "state": "liquid"},
      {"name": "Krypton", "symbol": "Kr", "atomic_number": 36, "reactivity": "low", "stability": "high", "mass": 83.798, "volume": 3.733, "charge": 0, "temperature": 298, "melting_point": 116, "boiling_point": 120, "state": "gas"},
      {"name": "Rubidium", "symbol": "Rb", "atomic_number": 37, "reactivity": "high", "stability": "low", "mass": 85.468, "volume": 1.532, "charge": 1, "temperature": 298, "melting_point": 312, "boiling_point": 961, "state": "solid"},
      {"name": "Strontium", "symbol": "Sr", "atomic_number": 38, "reactivity": "moderate", "stability": "high", "mass": 87.62, "volume": 2.64, "charge": 2, "temperature": 298, "melting_point": 1050, "boiling_point": 1655, "state": "solid"},
      {"name": "Yttrium", "symbol": "Y", "atomic_number": 39, "reactivity": "moderate", "stability": "high", "mass": 88.906, "volume": 4.47, "charge": 3, "temperature": 298, "melting_point": 1799, "boiling_point": 3609, "state": "solid"},
      {"name": "Zirconium", "symbol": "Zr", "atomic_number": 40, "reactivity": "moderate", "stability": "high", "mass": 91.224, "volume": 6.52, "charge": 4, "temperature": 298, "melting_point": 2128, "boiling_point": 4682, "state": "solid"},
      {"name": "Niobium", "symbol": "Nb", "atomic_number": 41, "reactivity": "moderate", "stability": "high", "mass": 92.906, "volume": 8.57, "charge": 5, "temperature": 298, "melting_point": 2750, "boiling_point": 5017, "state": "solid"},
      {"name": "Molybdenum", "symbol": "Mo", "atomic_number": 42, "reactivity": "moderate", "stability": "high", "mass": 95.95, "volume": 10.28, "charge": 6, "temperature": 298, "melting_point": 2896, "boiling_point": 4912, "state": "solid"},
      {"name": "Technetium", "symbol": "Tc", "atomic_number": 43, "reactivity": "moderate", "stability": "moderate", "mass": 98, "volume": 11, "charge": 7, "temperature": 298, "melting_point": 2430, "boiling_point": 4538, "state": "solid"},
      {"name": "Ruthenium", "symbol": "Ru", "atomic_number": 44, "reactivity": "moderate", "stability": "moderate", "mass": 101.07, "volume": 12.1, "charge": 4, "temperature": 298, "melting_point": 2607, "boiling_point": 4423, "state": "solid"},
      {"name": "Rhodium", "symbol": "Rh", "atomic_number": 45, "reactivity": "moderate", "stability": "moderate", "mass": 102.91, "volume": 12.41, "charge": 3, "temperature": 298, "melting_point": 2237, "boiling_point": 3968, "state": "solid"},
      {"name": "Palladium", "symbol": "Pd", "atomic_number": 46, "reactivity": "moderate", "stability": "moderate", "mass": 106.42, "volume": 12.02, "charge": 2, "temperature": 298, "melting_point": 1828, "boiling_point": 3236, "state": "solid"},
      {"name": "Silver", "symbol": "Ag", "atomic_number": 47, "reactivity": "moderate", "stability": "moderate", "mass": 107.87, "volume": 10.49, "charge": 1, "temperature": 298, "melting_point": 1234, "boiling_point": 2435, "state": "solid"},
      {"name": "Cadmium", "symbol": "Cd", "atomic_number": 48, "reactivity": "moderate", "stability": "low", "mass": 112.41, "volume": 8.65, "charge": 2, "temperature": 298, "melting_point": 594, "boiling_point": 1040, "state": "solid"},
      {"name": "Indium", "symbol": "In", "atomic_number": 49, "reactivity": "moderate", "stability": "low", "mass": 114.82, "volume": 7.31, "charge": 3, "temperature": 298, "melting_point": 430, "boiling_point": 2345, "state": "solid"},
      {"name": "Tin", "symbol": "Sn", "atomic_number": 50, "reactivity": "moderate", "stability": "moderate", "mass": 118.71, "volume": 7.29, "charge": 4, "temperature": 298, "melting_point": 505, "boiling_point": 2875, "state": "solid"},
      {"name": "Antimony", "symbol": "Sb", "atomic_number": 51, "reactivity": "moderate", "stability": "moderate", "mass": 121.76, "volume": 6.685, "charge": -3, "temperature": 298, "melting_point": 904, "boiling_point": 1860, "state": "solid"},
      {"name": "Tellurium", "symbol": "Te", "atomic_number": 52, "reactivity": "moderate", "stability": "moderate", "mass": 127.60, "volume": 6.24, "charge": -2, "temperature": 298, "melting_point": 723, "boiling_point": 1261, "state": "solid"},
      {"name": "Iodine", "symbol": "I", "atomic_number": 53, "reactivity": "high", "stability": "moderate", "mass": 126.90, "volume": 4.93, "charge": -1, "temperature": 298, "melting_point": 387, "boiling_point": 457, "state": "solid"},
      {"name": "Xenon", "symbol": "Xe", "atomic_number": 54, "reactivity": "low", "stability": "high", "mass": 131.29, "volume": 5.9, "charge": 0, "temperature": 298, "melting_point": 161, "boiling_point": 165, "state": "gas"},
      {"name": "Cesium", "symbol": "Cs", "atomic_number": 55, "reactivity": "very high", "stability": "low", "mass": 132.91, "volume": 1.873, "charge": 1, "temperature": 298, "melting_point": 302, "boiling_point": 944, "state": "solid"},
      {"name": "Barium", "symbol": "Ba", "atomic_number": 56, "reactivity": "high", "stability": "low", "mass": 137.33, "volume": 3.594, "charge": 2, "temperature": 298, "melting_point": 1000, "boiling_point": 2143, "state": "solid"},
      {"name": "Lanthanum", "symbol": "La", "atomic_number": 57, "reactivity": "moderate", "stability": "high", "mass": 138.91, "volume": 6.145, "charge": 3, "temperature": 298, "melting_point": 1193, "boiling_point": 3737, "state": "solid"},
      {"name": "Cerium", "symbol": "Ce", "atomic_number": 58, "reactivity": "moderate", "stability": "high", "mass": 140.12, "volume": 6.77, "charge": 3, "temperature": 298, "melting_point": 1071, "boiling_point": 3716, "state": "solid"},
      {"name": "Praseodymium", "symbol": "Pr", "atomic_number": 59, "reactivity": "moderate", "stability": "high", "mass": 140.91, "volume": 6.77, "charge": 3, "temperature": 298, "melting_point": 1208, "boiling_point": 3793, "state": "solid"},
      {"name": "Neodymium", "symbol": "Nd", "atomic_number": 60, "reactivity": "moderate", "stability": "high", "mass": 144.24, "volume": 7.01, "charge": 3, "temperature": 298, "melting_point": 1297, "boiling_point": 3347, "state": "solid"},
      {"name": "Promethium", "symbol": "Pm", "atomic_number": 61, "reactivity": "moderate", "stability": "moderate", "mass": 145, "volume": 7.26, "charge": 3, "temperature": 298, "melting_point": 1315, "boiling_point": 3273, "state": "solid"},
      {"name": "Samarium", "symbol": "Sm", "atomic_number": 62, "reactivity": "moderate", "stability": "high", "mass": 150.36, "volume": 7.52, "charge": 3, "temperature": 298, "melting_point": 1345, "boiling_point": 2067, "state": "solid"},
      {"name": "Europium", "symbol": "Eu", "atomic_number": 63, "reactivity": "moderate", "stability": "moderate", "mass": 151.96, "volume": 5.243, "charge": 3, "temperature": 298, "melting_point": 1099, "boiling_point": 1802, "state": "solid"},
      {"name": "Gadolinium", "symbol": "Gd", "atomic_number": 64, "reactivity": "moderate", "stability": "high", "mass": 157.25, "volume": 7.9, "charge": 3, "temperature": 298, "melting_point": 1585, "boiling_point": 3546, "state": "solid"},
      {"name": "Terbium", "symbol": "Tb", "atomic_number": 65, "reactivity": "moderate", "stability": "high", "mass": 158.93, "volume": 8.23, "charge": 3, "temperature": 298, "melting_point": 1629, "boiling_point": 3503, "state": "solid"},
      {"name": "Dysprosium", "symbol": "Dy", "atomic_number": 66, "reactivity": "moderate", "stability": "high", "mass": 162.50, "volume": 8.55, "charge": 3, "temperature": 298, "melting_point": 1680, "boiling_point": 2840, "state": "solid"},
      {"name": "Holmium", "symbol": "Ho", "atomic_number": 67, "reactivity": "moderate", "stability": "high", "mass": 164.93, "volume": 8.8, "charge": 3, "temperature": 298, "melting_point": 1734, "boiling_point": 2993, "state": "solid"},
      {"name": "Erbium", "symbol": "Er", "atomic_number": 68, "reactivity": "moderate", "stability": "high", "mass": 167.26, "volume": 9.07, "charge": 3, "temperature": 298, "melting_point": 1802, "boiling_point": 3141, "state": "solid"},
      {"name": "Thulium", "symbol": "Tm", "atomic_number": 69, "reactivity": "moderate", "stability": "high", "mass": 168.93, "volume": 9.32, "charge": 3, "temperature": 298, "melting_point": 1818, "boiling_point": 2223, "state": "solid"},
      {"name": "Ytterbium", "symbol": "Yb", "atomic_number": 70, "reactivity": "moderate", "stability": "high", "mass": 173.04, "volume": 6.9, "charge": 3, "temperature": 298, "melting_point": 1097, "boiling_point": 1469, "state": "solid"},
      {"name": "Lutetium", "symbol": "Lu", "atomic_number": 71, "reactivity": "moderate", "stability": "high", "mass": 174.97, "volume": 9.84, "charge": 3, "temperature": 298, "melting_point": 1936, "boiling_point": 3675, "state": "solid"},
      {"name": "Hafnium", "symbol": "Hf", "atomic_number": 72, "reactivity": "moderate", "stability": "high", "mass": 178.49, "volume": 13.31, "charge": 4, "temperature": 298, "melting_point": 2506, "boiling_point": 4876, "state": "solid"},
      {"name": "Tantalum", "symbol": "Ta", "atomic_number": 73, "reactivity": "moderate", "stability": "high", "mass": 180.95, "volume": 16.69, "charge": 5, "temperature": 298, "melting_point": 3290, "boiling_point": 5731, "state": "solid"},
      {"name": "Tungsten", "symbol": "W", "atomic_number": 74, "reactivity": "moderate", "stability": "high", "mass": 183.84, "volume": 19.3, "charge": 6, "temperature": 298, "melting_point": 3695, "boiling_point": 6203, "state": "solid"},
      {"name": "Rhenium", "symbol": "Re", "atomic_number": 75, "reactivity": "moderate", "stability": "moderate", "mass": 186.21, "volume": 21.02, "charge": 7, "temperature": 298, "melting_point": 3459, "boiling_point": 5869, "state": "solid"},
      {"name": "Osmium", "symbol": "Os", "atomic_number": 76, "reactivity": "moderate", "stability": "moderate", "mass": 190.23, "volume": 22.59, "charge": 8, "temperature": 298, "melting_point": 3306, "boiling_point": 5285, "state": "solid"},
      {"name": "Iridium", "symbol": "Ir", "atomic_number": 77, "reactivity": "moderate", "stability": "high", "mass": 192.22, "volume": 22.56, "charge": 9, "temperature": 298, "melting_point": 2719, "boiling_point": 4701, "state": "solid"},
      {"name": "Platinum", "symbol": "Pt", "atomic_number": 78, "reactivity": "moderate", "stability": "high", "mass": 195.08, "volume": 21.45, "charge": 10, "temperature": 298, "melting_point": 2041, "boiling_point": 4098, "state": "solid"},
      {"name": "Gold", "symbol": "Au", "atomic_number": 79, "reactivity": "moderate", "stability": "high", "mass": 196.97, "volume": 19.3, "charge": 11, "temperature": 298, "melting_point": 1337, "boiling_point": 3129, "state": "solid"},
      {"name": "Mercury", "symbol": "Hg", "atomic_number": 80, "reactivity": "low", "stability": "low", "mass": 200.59, "volume": 13.53, "charge": 12, "temperature": 298, "melting_point": 234, "boiling_point": 630, "state": "liquid"},
      {"name": "Thallium", "symbol": "Tl", "atomic_number": 81, "reactivity": "moderate", "stability": "low", "mass": 204.38, "volume": 11.85, "charge": 3, "temperature": 298, "melting_point": 577, "boiling_point": 1746, "state": "solid"},
      {"name": "Lead", "symbol": "Pb", "atomic_number": 82, "reactivity": "moderate", "stability": "moderate", "mass": 207.2, "volume": 11.34, "charge": 2, "temperature": 298, "melting_point": 600, "boiling_point": 2022, "state": "solid"},
      {"name": "Bismuth", "symbol": "Bi", "atomic_number": 83, "reactivity": "moderate", "stability": "moderate", "mass": 208.98, "volume": 9.78, "charge": 3, "temperature": 298, "melting_point": 544, "boiling_point": 1837, "state": "solid"},
      {"name": "Polonium", "symbol": "Po", "atomic_number": 84, "reactivity": "high", "stability": "low", "mass": 209, "volume": 9.196, "charge": 2, "temperature": 298, "melting_point": 527, "boiling_point": 1235, "state": "solid"},
      {"name": "Astatine", "symbol": "At", "atomic_number": 85, "reactivity": "high", "stability": "low", "mass": 210, "volume": 7, "charge": -1, "temperature": 298, "melting_point": 575, "boiling_point": 610, "state": "solid"},
      {"name": "Radon", "symbol": "Rn", "atomic_number": 86, "reactivity": "low", "stability": "low", "mass": 222, "volume": 9.73, "charge": 0, "temperature": 298, "melting_point": 202, "boiling_point": 211, "state": "gas"},
      {"name": "Francium", "symbol": "Fr", "atomic_number": 87, "reactivity": "very high", "stability": "low", "mass": 223, "volume": 1.87, "charge": 1, "temperature": 298, "melting_point": 300, "boiling_point": 950, "state": "solid"},
      {"name": "Radium", "symbol": "Ra", "atomic_number": 88, "reactivity": "high", "stability": "low", "mass": 226, "volume": 5.5, "charge": 2, "temperature": 298, "melting_point": 973, "boiling_point": 2010, "state": "solid"},
      {"name": "Actinium", "symbol": "Ac", "atomic_number": 89, "reactivity": "moderate", "stability": "moderate", "mass": 227, "volume": 10.07, "charge": 3, "temperature": 298, "melting_point": 1500, "boiling_point": 3200, "state": "solid"},
      {"name": "Thorium", "symbol": "Th", "atomic_number": 90, "reactivity": "moderate", "stability": "moderate", "mass": 232.04, "volume": 11.72, "charge": 4, "temperature": 298, "melting_point": 2023, "boiling_point": 5061, "state": "solid"},
      {"name": "Protactinium", "symbol": "Pa", "atomic_number": 91, "reactivity": "moderate", "stability": "low", "mass": 231.04, "volume": 15.37, "charge": 5, "temperature": 298, "melting_point": 1845, "boiling_point": 4273, "state": "solid"},
      {"name": "Uranium", "symbol": "U", "atomic_number": 92, "reactivity": "moderate", "stability": "low", "mass": 238.03, "volume": 18.95, "charge": 6, "temperature": 298, "melting_point": 1408, "boiling_point": 4404, "state": "solid"},
      {"name": "Neptunium", "symbol": "Np", "atomic_number": 93, "reactivity": "moderate", "stability": "low", "mass": 237, "volume": 20.45, "charge": 7, "temperature": 298, "melting_point": 917, "boiling_point": 4273, "state": "solid"},
      {"name": "Plutonium", "symbol": "Pu", "atomic_number": 94, "reactivity": "moderate", "stability": "low", "mass": 244, "volume": 19.84, "charge": 8, "temperature": 298, "melting_point": 913, "boiling_point": 3505, "state": "solid"},
      {"name": "Americium", "symbol": "Am", "atomic_number": 95, "reactivity": "moderate", "stability": "low", "mass": 243, "volume": 13.67, "charge": 3, "temperature": 298, "melting_point": 1449, "boiling_point": 2880, "state": "solid"},
      {"name": "Curium", "symbol": "Cm", "atomic_number": 96, "reactivity": "moderate", "stability": "low", "mass": 247, "volume": 13.51, "charge": 3, "temperature": 298, "melting_point": 1613, "boiling_point": 3383, "state": "solid"},
      {"name": "Berkelium", "symbol": "Bk", "atomic_number": 97, "reactivity": "moderate", "stability": "low", "mass": 247, "volume": 14.78, "charge": 3, "temperature": 298, "melting_point": 1259, "boiling_point": 2900, "state": "solid"},
      {"name": "Californium", "symbol": "Cf", "atomic_number": 98, "reactivity": "moderate", "stability": "low", "mass": 251, "volume": 15.1, "charge": 3, "temperature": 298, "melting_point": 1173, "boiling_point": 1743, "state": "solid"},
      {"name": "Einsteinium", "symbol": "Es", "atomic_number": 99, "reactivity": "moderate", "stability": "low", "mass": 252, "volume": 8.84, "charge": 3, "temperature": 298, "melting_point": 1133, "boiling_point": 1269, "state": "solid"},
      {"name": "Fermium", "symbol": "Fm", "atomic_number": 100, "reactivity": "moderate", "stability": "low", "mass": 257, "volume": 8.7, "charge": 3, "temperature": 298, "melting_point": 1125, "boiling_point": 1527, "state": "solid"},
      {"name": "Mendelevium", "symbol": "Md", "atomic_number": 101, "reactivity": "moderate", "stability": "low", "mass": 258, "volume": 10.3, "charge": 3, "temperature": 298, "melting_point": 1100, "boiling_point": 1500, "state": "solid"},
      {"name": "Nobelium", "symbol": "No", "atomic_number": 102, "reactivity": "moderate", "stability": "low", "mass": 259, "volume": 9.9, "charge": 3, "temperature": 298, "melting_point": 1100, "boiling_point": 1500, "state": "solid"},
      {"name": "Lawrencium", "symbol": "Lr", "atomic_number": 103, "reactivity": "moderate", "stability": "low", "mass": 262, "volume": 15.6, "charge": 3, "temperature": 298, "melting_point": 1900, "boiling_point": 2800, "state": "solid"},
      {"name": "Rutherfordium", "symbol": "Rf", "atomic_number": 104, "reactivity": "moderate", "stability": "low", "mass": 267, "volume": 23.2, "charge": 3, "temperature": 298, "melting_point": 2100, "boiling_point": 5500, "state": "solid"},
      {"name": "Dubnium", "symbol": "Db", "atomic_number": 105, "reactivity": "moderate", "stability": "low", "mass": 270, "volume": 29.3, "charge": 3, "temperature": 298, "melting_point": 2500, "boiling_point": 5000, "state": "solid"},
      {"name": "Seaborgium", "symbol": "Sg", "atomic_number": 106, "reactivity": "moderate", "stability": "low", "mass": 271, "volume": 35.3, "charge": 3, "temperature": 298, "melting_point": 3000, "boiling_point": 6000, "state": "solid"},
      {"name": "Bohrium", "symbol": "Bh", "atomic_number": 107, "reactivity": "high", "stability": "low", "mass": 274, "volume": 37.1, "charge": 3, "temperature": 298, "melting_point": 3500, "boiling_point": 6500, "state": "solid"},
      {"name": "Hassium", "symbol": "Hs", "atomic_number": 108, "reactivity": "high", "stability": "low", "mass": 277, "volume": 40.7, "charge": 3, "temperature": 298, "melting_point": 4000, "boiling_point": 7000, "state": "solid"},
      {"name": "Meitnerium", "symbol": "Mt", "atomic_number": 109, "reactivity": "moderate", "stability": "low", "mass": 278, "volume": 48.6, "charge": 3, "temperature": 298, "melting_point": 4500, "boiling_point": 7500, "state": "solid"},
      {"name": "Darmstadtium", "symbol": "Ds", "atomic_number": 110, "reactivity": "moderate", "stability": "low", "mass": 281, "volume": 54.1, "charge": 3, "temperature": 298, "melting_point": 5000, "boiling_point": 8000, "state": "solid"},
      {"name": "Roentgenium", "symbol": "Rg", "atomic_number": 111, "reactivity": "moderate", "stability": "low", "mass": 282, "volume": 57.6, "charge": 3, "temperature": 298, "melting_point": 5500, "boiling_point": 8500, "state": "solid"},
      {"name": "Copernicium", "symbol": "Cn", "atomic_number": 112, "reactivity": "moderate", "stability": "low", "mass": 285, "volume": 64.5, "charge": 3, "temperature": 298, "melting_point": 6000, "boiling_point": 9000, "state": "solid"},
      {"name": "Nihonium", "symbol": "Nh", "atomic_number": 113, "reactivity": "moderate", "stability": "low", "mass": 286, "volume": 67.7, "charge": 3, "temperature": 298, "melting_point": 6500, "boiling_point": 9500, "state": "solid"},
      {"name": "Flerovium", "symbol": "Fl", "atomic_number": 114, "reactivity": "moderate", "stability": "low", "mass": 289, "volume": 71.8, "charge": 3, "temperature": 298, "melting_point": 7000, "boiling_point": 10000, "state": "solid"},
      {"name": "Moscovium", "symbol": "Mc", "atomic_number": 115, "reactivity": "moderate", "stability": "low", "mass": 290, "volume": 77.4, "charge": 3, "temperature": 298, "melting_point": 7500, "boiling_point": 10500, "state": "solid"},
      {"name": "Livermorium", "symbol": "Lv", "atomic_number": 116, "reactivity": "moderate", "stability": "low", "mass": 293, "volume": 81.4, "charge": 3, "temperature": 298, "melting_point": 8000, "boiling_point": 11000, "state": "solid"},
      {"name": "Tennessine", "symbol": "Ts", "atomic_number": 117, "reactivity": "moderate", "stability": "low", "mass": 294, "volume": 21.6, "charge": 3, "temperature": 298, "melting_point": 8500, "boiling_point": 11500, "state": "solid"},
      {"name": "Oganesson", "symbol": "Og", "atomic_number": 118, "reactivity": "moderate", "stability": "low", "mass": 294, "volume": 12.7, "charge": 3, "temperature": 298, "melting_point": 9000, "boiling_point": 12000, "state": "solid"}
    ]
  }




  